# vsim -novopt mem_top -suppress 12110 "+INBETWEEN_RESET" -c -do "coverage save -onexit -directive -cvg -codeall test5.ucdb; run -all; exit" 
# Start time: 07:17:57 on May 10,2024
# ** Warning: (vsim-8891) All optimizations are disabled because the -novopt option is in effect. This will cause your simulation to run very slowly. If you are using this switch to preserve visibility for Debug or PLI features, please see the User's Manual section on Preserving Object Visibility with vopt. -novopt option is now deprecated and will be removed in future releases.
# //  Questa Sim-64
# //  Version 10.7c win64 Aug 18 2018
# //
# //  Copyright 1991-2018 Mentor Graphics Corporation
# //  All Rights Reserved.
# //
# //  QuestaSim and its associated documentation contain trade
# //  secrets and commercial or financial information that are the property of
# //  Mentor Graphics Corporation and are privileged, confidential,
# //  and exempt from disclosure under the Freedom of Information Act,
# //  5 U.S.C. Section 552. Furthermore, this information
# //  is prohibited from disclosure under the Trade Secrets Act,
# //  18 U.S.C. Section 1905.
# //
# Loading sv_std.std
# Loading work.pkg_files
# Loading work.ram_top_sv_unit
# Loading work.mem_top
# Loading work.mem_intf
# Loading work.ram_rtl
# coverage save -onexit -directive -cvg -codeall test5.ucdb
#  run -all
# env run started
#                    0 :generator_continuous_wr
#                    0 : generator: WRITE 48 132 197 0 0 0
# reset block
#                    0 :reset asserted
# -------------------monitor class-------------------
# Time	|	Name		|	Value
# -------------------------------------------------------
# 5	|	wr_enbl		|	0
# 5	|	rd_enbl		|	0
# 5	|	wr_addr		|	0
# 5	|	rd_addr		|	0
# 5	|	wr_data		|	0
# 5	|	rd_data		|	0
# -------------------------------------------------------
# -------------------predictcor class-------------------
# Time	|	Name		|	Value
# -------------------------------------------------------
# 5	|	wr_enbl		|	0
# 5	|	rd_enbl		|	0
# 5	|	wr_addr		|	0
# 5	|	rd_addr		|	0
# 5	|	wr_data		|	0
# 5	|	rd_data		|	0
# -------------------------------------------------------
#                    5 : scoreboard expected: 0 0 0 0 0 0 0
# -------------------scoreboard class-------------------
# Time	|	Name		|	Value
# -------------------------------------------------------
# 5	|	wr_enbl		|	0
# 5	|	rd_enbl		|	0
# 5	|	wr_addr		|	0
# 5	|	rd_addr		|	0
# 5	|	wr_data		|	0
# 5	|	rd_data		|	0
# -------------------------------------------------------
#                    5 : scoreboard actual: 0 0 0 0 0 0 0
# -------------------scoreboard class-------------------
# Time	|	Name		|	Value
# -------------------------------------------------------
# 5	|	wr_enbl		|	0
# 5	|	rd_enbl		|	0
# 5	|	wr_addr		|	0
# 5	|	rd_addr		|	0
# 5	|	wr_data		|	0
# 5	|	rd_data		|	0
# -------------------------------------------------------
#                   15 :reset deasserted
# reset block
#                   15 : driver: WRITE 48 132 197 0 0 0
# -------------------driver class-------------------
# Time	|	Name		|	Value
# -------------------------------------------------------
# 15	|	wr_enbl		|	1
# 15	|	rd_enbl		|	0
# 15	|	wr_addr		|	48
# 15	|	rd_addr		|	132
# 15	|	wr_data		|	197
# 15	|	rd_data		|	0
# -------------------------------------------------------
# -------------------monitor class-------------------
# Time	|	Name		|	Value
# -------------------------------------------------------
# 15	|	wr_enbl		|	0
# 15	|	rd_enbl		|	0
# 15	|	wr_addr		|	0
# 15	|	rd_addr		|	0
# 15	|	wr_data		|	0
# 15	|	rd_data		|	0
# -------------------------------------------------------
# -------------------predictcor class-------------------
# Time	|	Name		|	Value
# -------------------------------------------------------
# 15	|	wr_enbl		|	0
# 15	|	rd_enbl		|	0
# 15	|	wr_addr		|	0
# 15	|	rd_addr		|	0
# 15	|	wr_data		|	0
# 15	|	rd_data		|	0
# -------------------------------------------------------
#                   15 : scoreboard expected: 0 0 0 0 0 0 0
# -------------------scoreboard class-------------------
# Time	|	Name		|	Value
# -------------------------------------------------------
# 15	|	wr_enbl		|	0
# 15	|	rd_enbl		|	0
# 15	|	wr_addr		|	0
# 15	|	rd_addr		|	0
# 15	|	wr_data		|	0
# 15	|	rd_data		|	0
# -------------------------------------------------------
#                   15 : scoreboard actual: 0 0 0 0 0 0 0
# -------------------scoreboard class-------------------
# Time	|	Name		|	Value
# -------------------------------------------------------
# 15	|	wr_enbl		|	0
# 15	|	rd_enbl		|	0
# 15	|	wr_addr		|	0
# 15	|	rd_addr		|	0
# 15	|	wr_data		|	0
# 15	|	rd_data		|	0
# -------------------------------------------------------
# reset block
#                   23 : generator: WRITE 196 113 103 1 0 0
#                   25 : driver: WRITE 196 113 103 1 0 0
# -------------------driver class-------------------
# Time	|	Name		|	Value
# -------------------------------------------------------
# 25	|	wr_enbl		|	1
# 25	|	rd_enbl		|	0
# 25	|	wr_addr		|	196
# 25	|	rd_addr		|	113
# 25	|	wr_data		|	103
# 25	|	rd_data		|	0
# -------------------------------------------------------
# -------------------monitor class-------------------
# Time	|	Name		|	Value
# -------------------------------------------------------
# 25	|	wr_enbl		|	1
# 25	|	rd_enbl		|	0
# 25	|	wr_addr		|	48
# 25	|	rd_addr		|	132
# 25	|	wr_data		|	197
# 25	|	rd_data		|	0
# -------------------------------------------------------
# -------------------predictcor class-------------------
# Time	|	Name		|	Value
# -------------------------------------------------------
# 25	|	wr_enbl		|	1
# 25	|	rd_enbl		|	0
# 25	|	wr_addr		|	48
# 25	|	rd_addr		|	132
# 25	|	wr_data		|	197
# 25	|	rd_data		|	0
# -------------------------------------------------------
#                   25 : scoreboard expected: WRITE 48 132 197 1 0 0
# -------------------scoreboard class-------------------
# Time	|	Name		|	Value
# -------------------------------------------------------
# 25	|	wr_enbl		|	1
# 25	|	rd_enbl		|	0
# 25	|	wr_addr		|	48
# 25	|	rd_addr		|	132
# 25	|	wr_data		|	197
# 25	|	rd_data		|	0
# -------------------------------------------------------
#                   25 : scoreboard actual: WRITE 48 132 197 1 0 0
# -------------------scoreboard class-------------------
# Time	|	Name		|	Value
# -------------------------------------------------------
# 25	|	wr_enbl		|	1
# 25	|	rd_enbl		|	0
# 25	|	wr_addr		|	48
# 25	|	rd_addr		|	132
# 25	|	wr_data		|	197
# 25	|	rd_data		|	0
# -------------------------------------------------------
#                   25 :read pass
# reset block
#                   33 : generator: WRITE 71 254 234 1 0 0
#                   35 : driver: WRITE 71 254 234 1 0 0
# -------------------driver class-------------------
# Time	|	Name		|	Value
# -------------------------------------------------------
# 35	|	wr_enbl		|	1
# 35	|	rd_enbl		|	0
# 35	|	wr_addr		|	71
# 35	|	rd_addr		|	254
# 35	|	wr_data		|	234
# 35	|	rd_data		|	0
# -------------------------------------------------------
# -------------------monitor class-------------------
# Time	|	Name		|	Value
# -------------------------------------------------------
# 35	|	wr_enbl		|	1
# 35	|	rd_enbl		|	0
# 35	|	wr_addr		|	196
# 35	|	rd_addr		|	113
# 35	|	wr_data		|	103
# 35	|	rd_data		|	0
# -------------------------------------------------------
# -------------------predictcor class-------------------
# Time	|	Name		|	Value
# -------------------------------------------------------
# 35	|	wr_enbl		|	1
# 35	|	rd_enbl		|	0
# 35	|	wr_addr		|	196
# 35	|	rd_addr		|	113
# 35	|	wr_data		|	103
# 35	|	rd_data		|	0
# -------------------------------------------------------
#                   35 : scoreboard expected: WRITE 196 113 103 1 0 0
# -------------------scoreboard class-------------------
# Time	|	Name		|	Value
# -------------------------------------------------------
# 35	|	wr_enbl		|	1
# 35	|	rd_enbl		|	0
# 35	|	wr_addr		|	196
# 35	|	rd_addr		|	113
# 35	|	wr_data		|	103
# 35	|	rd_data		|	0
# -------------------------------------------------------
#                   35 : scoreboard actual: WRITE 196 113 103 1 0 0
# -------------------scoreboard class-------------------
# Time	|	Name		|	Value
# -------------------------------------------------------
# 35	|	wr_enbl		|	1
# 35	|	rd_enbl		|	0
# 35	|	wr_addr		|	196
# 35	|	rd_addr		|	113
# 35	|	wr_data		|	103
# 35	|	rd_data		|	0
# -------------------------------------------------------
#                   35 :read pass
# reset block
#                   43 : generator: WRITE 232 208 64 1 0 0
#                   45 : driver: WRITE 232 208 64 1 0 0
# -------------------driver class-------------------
# Time	|	Name		|	Value
# -------------------------------------------------------
# 45	|	wr_enbl		|	1
# 45	|	rd_enbl		|	0
# 45	|	wr_addr		|	232
# 45	|	rd_addr		|	208
# 45	|	wr_data		|	64
# 45	|	rd_data		|	0
# -------------------------------------------------------
# -------------------monitor class-------------------
# Time	|	Name		|	Value
# -------------------------------------------------------
# 45	|	wr_enbl		|	1
# 45	|	rd_enbl		|	0
# 45	|	wr_addr		|	71
# 45	|	rd_addr		|	254
# 45	|	wr_data		|	234
# 45	|	rd_data		|	0
# -------------------------------------------------------
# -------------------predictcor class-------------------
# Time	|	Name		|	Value
# -------------------------------------------------------
# 45	|	wr_enbl		|	1
# 45	|	rd_enbl		|	0
# 45	|	wr_addr		|	71
# 45	|	rd_addr		|	254
# 45	|	wr_data		|	234
# 45	|	rd_data		|	0
# -------------------------------------------------------
#                   45 : scoreboard expected: WRITE 71 254 234 1 0 0
# -------------------scoreboard class-------------------
# Time	|	Name		|	Value
# -------------------------------------------------------
# 45	|	wr_enbl		|	1
# 45	|	rd_enbl		|	0
# 45	|	wr_addr		|	71
# 45	|	rd_addr		|	254
# 45	|	wr_data		|	234
# 45	|	rd_data		|	0
# -------------------------------------------------------
#                   45 : scoreboard actual: WRITE 71 254 234 1 0 0
# -------------------scoreboard class-------------------
# Time	|	Name		|	Value
# -------------------------------------------------------
# 45	|	wr_enbl		|	1
# 45	|	rd_enbl		|	0
# 45	|	wr_addr		|	71
# 45	|	rd_addr		|	254
# 45	|	wr_data		|	234
# 45	|	rd_data		|	0
# -------------------------------------------------------
#                   45 :read pass
# reset block
#                   53 : generator: WRITE 107 10 140 1 0 0
#                   55 : driver: WRITE 107 10 140 1 0 0
# -------------------driver class-------------------
# Time	|	Name		|	Value
# -------------------------------------------------------
# 55	|	wr_enbl		|	1
# 55	|	rd_enbl		|	0
# 55	|	wr_addr		|	107
# 55	|	rd_addr		|	10
# 55	|	wr_data		|	140
# 55	|	rd_data		|	0
# -------------------------------------------------------
# -------------------monitor class-------------------
# Time	|	Name		|	Value
# -------------------------------------------------------
# 55	|	wr_enbl		|	1
# 55	|	rd_enbl		|	0
# 55	|	wr_addr		|	232
# 55	|	rd_addr		|	208
# 55	|	wr_data		|	64
# 55	|	rd_data		|	0
# -------------------------------------------------------
# -------------------predictcor class-------------------
# Time	|	Name		|	Value
# -------------------------------------------------------
# 55	|	wr_enbl		|	1
# 55	|	rd_enbl		|	0
# 55	|	wr_addr		|	232
# 55	|	rd_addr		|	208
# 55	|	wr_data		|	64
# 55	|	rd_data		|	0
# -------------------------------------------------------
#                   55 : scoreboard expected: WRITE 232 208 64 1 0 0
# -------------------scoreboard class-------------------
# Time	|	Name		|	Value
# -------------------------------------------------------
# 55	|	wr_enbl		|	1
# 55	|	rd_enbl		|	0
# 55	|	wr_addr		|	232
# 55	|	rd_addr		|	208
# 55	|	wr_data		|	64
# 55	|	rd_data		|	0
# -------------------------------------------------------
#                   55 : scoreboard actual: WRITE 232 208 64 1 0 0
# -------------------scoreboard class-------------------
# Time	|	Name		|	Value
# -------------------------------------------------------
# 55	|	wr_enbl		|	1
# 55	|	rd_enbl		|	0
# 55	|	wr_addr		|	232
# 55	|	rd_addr		|	208
# 55	|	wr_data		|	64
# 55	|	rd_data		|	0
# -------------------------------------------------------
#                   55 :read pass
# reset block
#                   63 : generator: READ 188 48 31 1 0 0
#                   65 : driver: READ 188 48 31 1 0 0
# -------------------driver class-------------------
# Time	|	Name		|	Value
# -------------------------------------------------------
# 65	|	wr_enbl		|	0
# 65	|	rd_enbl		|	1
# 65	|	wr_addr		|	188
# 65	|	rd_addr		|	48
# 65	|	wr_data		|	31
# 65	|	rd_data		|	0
# -------------------------------------------------------
# -------------------monitor class-------------------
# Time	|	Name		|	Value
# -------------------------------------------------------
# 65	|	wr_enbl		|	1
# 65	|	rd_enbl		|	0
# 65	|	wr_addr		|	107
# 65	|	rd_addr		|	10
# 65	|	wr_data		|	140
# 65	|	rd_data		|	0
# -------------------------------------------------------
# -------------------predictcor class-------------------
# Time	|	Name		|	Value
# -------------------------------------------------------
# 65	|	wr_enbl		|	1
# 65	|	rd_enbl		|	0
# 65	|	wr_addr		|	107
# 65	|	rd_addr		|	10
# 65	|	wr_data		|	140
# 65	|	rd_data		|	0
# -------------------------------------------------------
#                   65 : scoreboard expected: WRITE 107 10 140 1 0 0
# -------------------scoreboard class-------------------
# Time	|	Name		|	Value
# -------------------------------------------------------
# 65	|	wr_enbl		|	1
# 65	|	rd_enbl		|	0
# 65	|	wr_addr		|	107
# 65	|	rd_addr		|	10
# 65	|	wr_data		|	140
# 65	|	rd_data		|	0
# -------------------------------------------------------
#                   65 : scoreboard actual: WRITE 107 10 140 1 0 0
# -------------------scoreboard class-------------------
# Time	|	Name		|	Value
# -------------------------------------------------------
# 65	|	wr_enbl		|	1
# 65	|	rd_enbl		|	0
# 65	|	wr_addr		|	107
# 65	|	rd_addr		|	10
# 65	|	wr_data		|	140
# 65	|	rd_data		|	0
# -------------------------------------------------------
#                   65 :read pass
# reset block
#                   73 : generator: READ 63 196 107 0 1 0
#                   75 : driver: READ 63 196 107 0 1 0
# -------------------driver class-------------------
# Time	|	Name		|	Value
# -------------------------------------------------------
# 75	|	wr_enbl		|	0
# 75	|	rd_enbl		|	1
# 75	|	wr_addr		|	63
# 75	|	rd_addr		|	196
# 75	|	wr_data		|	107
# 75	|	rd_data		|	0
# -------------------------------------------------------
# -------------------monitor class-------------------
# Time	|	Name		|	Value
# -------------------------------------------------------
# 75	|	wr_enbl		|	0
# 75	|	rd_enbl		|	1
# 75	|	wr_addr		|	188
# 75	|	rd_addr		|	48
# 75	|	wr_data		|	31
# 75	|	rd_data		|	197
# -------------------------------------------------------
# -------------------predictcor class-------------------
# Time	|	Name		|	Value
# -------------------------------------------------------
# 75	|	wr_enbl		|	0
# 75	|	rd_enbl		|	1
# 75	|	wr_addr		|	188
# 75	|	rd_addr		|	48
# 75	|	wr_data		|	31
# 75	|	rd_data		|	197
# -------------------------------------------------------
#                   75 : scoreboard expected: READ 188 48 31 0 1 197
# -------------------scoreboard class-------------------
# Time	|	Name		|	Value
# -------------------------------------------------------
# 75	|	wr_enbl		|	0
# 75	|	rd_enbl		|	1
# 75	|	wr_addr		|	188
# 75	|	rd_addr		|	48
# 75	|	wr_data		|	31
# 75	|	rd_data		|	197
# -------------------------------------------------------
#                   75 : scoreboard actual: READ 188 48 31 0 1 197
# -------------------scoreboard class-------------------
# Time	|	Name		|	Value
# -------------------------------------------------------
# 75	|	wr_enbl		|	0
# 75	|	rd_enbl		|	1
# 75	|	wr_addr		|	188
# 75	|	rd_addr		|	48
# 75	|	wr_data		|	31
# 75	|	rd_data		|	197
# -------------------------------------------------------
#                   75 :read pass
# reset block
#                   83 : generator: READ 195 71 98 0 1 0
#                   85 : driver: READ 195 71 98 0 1 0
# -------------------driver class-------------------
# Time	|	Name		|	Value
# -------------------------------------------------------
# 85	|	wr_enbl		|	0
# 85	|	rd_enbl		|	1
# 85	|	wr_addr		|	195
# 85	|	rd_addr		|	71
# 85	|	wr_data		|	98
# 85	|	rd_data		|	0
# -------------------------------------------------------
# -------------------monitor class-------------------
# Time	|	Name		|	Value
# -------------------------------------------------------
# 85	|	wr_enbl		|	0
# 85	|	rd_enbl		|	1
# 85	|	wr_addr		|	63
# 85	|	rd_addr		|	196
# 85	|	wr_data		|	107
# 85	|	rd_data		|	103
# -------------------------------------------------------
# -------------------predictcor class-------------------
# Time	|	Name		|	Value
# -------------------------------------------------------
# 85	|	wr_enbl		|	0
# 85	|	rd_enbl		|	1
# 85	|	wr_addr		|	63
# 85	|	rd_addr		|	196
# 85	|	wr_data		|	107
# 85	|	rd_data		|	103
# -------------------------------------------------------
#                   85 : scoreboard expected: READ 63 196 107 0 1 103
# -------------------scoreboard class-------------------
# Time	|	Name		|	Value
# -------------------------------------------------------
# 85	|	wr_enbl		|	0
# 85	|	rd_enbl		|	1
# 85	|	wr_addr		|	63
# 85	|	rd_addr		|	196
# 85	|	wr_data		|	107
# 85	|	rd_data		|	103
# -------------------------------------------------------
#                   85 : scoreboard actual: READ 63 196 107 0 1 103
# -------------------scoreboard class-------------------
# Time	|	Name		|	Value
# -------------------------------------------------------
# 85	|	wr_enbl		|	0
# 85	|	rd_enbl		|	1
# 85	|	wr_addr		|	63
# 85	|	rd_addr		|	196
# 85	|	wr_data		|	107
# 85	|	rd_data		|	103
# -------------------------------------------------------
#                   85 :read pass
# reset block
#                   93 : generator: READ 66 232 129 0 1 0
#                   95 : driver: READ 66 232 129 0 1 0
# -------------------driver class-------------------
# Time	|	Name		|	Value
# -------------------------------------------------------
# 95	|	wr_enbl		|	0
# 95	|	rd_enbl		|	1
# 95	|	wr_addr		|	66
# 95	|	rd_addr		|	232
# 95	|	wr_data		|	129
# 95	|	rd_data		|	0
# -------------------------------------------------------
# -------------------monitor class-------------------
# Time	|	Name		|	Value
# -------------------------------------------------------
# 95	|	wr_enbl		|	0
# 95	|	rd_enbl		|	1
# 95	|	wr_addr		|	195
# 95	|	rd_addr		|	71
# 95	|	wr_data		|	98
# 95	|	rd_data		|	234
# -------------------------------------------------------
# -------------------predictcor class-------------------
# Time	|	Name		|	Value
# -------------------------------------------------------
# 95	|	wr_enbl		|	0
# 95	|	rd_enbl		|	1
# 95	|	wr_addr		|	195
# 95	|	rd_addr		|	71
# 95	|	wr_data		|	98
# 95	|	rd_data		|	234
# -------------------------------------------------------
#                   95 : scoreboard expected: READ 195 71 98 0 1 234
# -------------------scoreboard class-------------------
# Time	|	Name		|	Value
# -------------------------------------------------------
# 95	|	wr_enbl		|	0
# 95	|	rd_enbl		|	1
# 95	|	wr_addr		|	195
# 95	|	rd_addr		|	71
# 95	|	wr_data		|	98
# 95	|	rd_data		|	234
# -------------------------------------------------------
#                   95 : scoreboard actual: READ 195 71 98 0 1 234
# -------------------scoreboard class-------------------
# Time	|	Name		|	Value
# -------------------------------------------------------
# 95	|	wr_enbl		|	0
# 95	|	rd_enbl		|	1
# 95	|	wr_addr		|	195
# 95	|	rd_addr		|	71
# 95	|	wr_data		|	98
# 95	|	rd_data		|	234
# -------------------------------------------------------
#                   95 :read pass
# reset block
#                  103 : generator: READ 151 107 56 0 1 0
#                  105 : driver: READ 151 107 56 0 1 0
# -------------------driver class-------------------
# Time	|	Name		|	Value
# -------------------------------------------------------
# 105	|	wr_enbl		|	0
# 105	|	rd_enbl		|	1
# 105	|	wr_addr		|	151
# 105	|	rd_addr		|	107
# 105	|	wr_data		|	56
# 105	|	rd_data		|	0
# -------------------------------------------------------
# -------------------monitor class-------------------
# Time	|	Name		|	Value
# -------------------------------------------------------
# 105	|	wr_enbl		|	0
# 105	|	rd_enbl		|	1
# 105	|	wr_addr		|	66
# 105	|	rd_addr		|	232
# 105	|	wr_data		|	129
# 105	|	rd_data		|	64
# -------------------------------------------------------
# -------------------predictcor class-------------------
# Time	|	Name		|	Value
# -------------------------------------------------------
# 105	|	wr_enbl		|	0
# 105	|	rd_enbl		|	1
# 105	|	wr_addr		|	66
# 105	|	rd_addr		|	232
# 105	|	wr_data		|	129
# 105	|	rd_data		|	64
# -------------------------------------------------------
#                  105 : scoreboard expected: READ 66 232 129 0 1 64
# -------------------scoreboard class-------------------
# Time	|	Name		|	Value
# -------------------------------------------------------
# 105	|	wr_enbl		|	0
# 105	|	rd_enbl		|	1
# 105	|	wr_addr		|	66
# 105	|	rd_addr		|	232
# 105	|	wr_data		|	129
# 105	|	rd_data		|	64
# -------------------------------------------------------
#                  105 : scoreboard actual: READ 66 232 129 0 1 64
# -------------------scoreboard class-------------------
# Time	|	Name		|	Value
# -------------------------------------------------------
# 105	|	wr_enbl		|	0
# 105	|	rd_enbl		|	1
# 105	|	wr_addr		|	66
# 105	|	rd_addr		|	232
# 105	|	wr_data		|	129
# 105	|	rd_data		|	64
# -------------------------------------------------------
#                  105 :read pass
# reset block
#                  113 : generator: READ 22 48 194 0 1 0
#                  113 :reset asserted
# -------------------monitor class-------------------
# Time	|	Name		|	Value
# -------------------------------------------------------
# 115	|	wr_enbl		|	0
# 115	|	rd_enbl		|	1
# 115	|	wr_addr		|	151
# 115	|	rd_addr		|	107
# 115	|	wr_data		|	56
# 115	|	rd_data		|	0
# -------------------------------------------------------
# -------------------predictcor class-------------------
# Time	|	Name		|	Value
# -------------------------------------------------------
# 115	|	wr_enbl		|	0
# 115	|	rd_enbl		|	1
# 115	|	wr_addr		|	151
# 115	|	rd_addr		|	107
# 115	|	wr_data		|	56
# 115	|	rd_data		|	0
# -------------------------------------------------------
#                  115 : scoreboard expected: READ 151 107 56 0 1 0
# -------------------scoreboard class-------------------
# Time	|	Name		|	Value
# -------------------------------------------------------
# 115	|	wr_enbl		|	0
# 115	|	rd_enbl		|	1
# 115	|	wr_addr		|	151
# 115	|	rd_addr		|	107
# 115	|	wr_data		|	56
# 115	|	rd_data		|	0
# -------------------------------------------------------
#                  115 : scoreboard actual: READ 151 107 56 0 1 0
# -------------------scoreboard class-------------------
# Time	|	Name		|	Value
# -------------------------------------------------------
# 115	|	wr_enbl		|	0
# 115	|	rd_enbl		|	1
# 115	|	wr_addr		|	151
# 115	|	rd_addr		|	107
# 115	|	wr_data		|	56
# 115	|	rd_data		|	0
# -------------------------------------------------------
#                  115 :read pass
#                  125 :reset deasserted
# reset block
#                  125 : driver: READ 22 48 194 0 1 0
# -------------------driver class-------------------
# Time	|	Name		|	Value
# -------------------------------------------------------
# 125	|	wr_enbl		|	0
# 125	|	rd_enbl		|	1
# 125	|	wr_addr		|	22
# 125	|	rd_addr		|	48
# 125	|	wr_data		|	194
# 125	|	rd_data		|	0
# -------------------------------------------------------
# -------------------monitor class-------------------
# Time	|	Name		|	Value
# -------------------------------------------------------
# 125	|	wr_enbl		|	0
# 125	|	rd_enbl		|	1
# 125	|	wr_addr		|	151
# 125	|	rd_addr		|	107
# 125	|	wr_data		|	56
# 125	|	rd_data		|	0
# -------------------------------------------------------
# -------------------predictcor class-------------------
# Time	|	Name		|	Value
# -------------------------------------------------------
# 125	|	wr_enbl		|	0
# 125	|	rd_enbl		|	1
# 125	|	wr_addr		|	151
# 125	|	rd_addr		|	107
# 125	|	wr_data		|	56
# 125	|	rd_data		|	0
# -------------------------------------------------------
#                  125 : scoreboard expected: READ 151 107 56 0 1 0
# -------------------scoreboard class-------------------
# Time	|	Name		|	Value
# -------------------------------------------------------
# 125	|	wr_enbl		|	0
# 125	|	rd_enbl		|	1
# 125	|	wr_addr		|	151
# 125	|	rd_addr		|	107
# 125	|	wr_data		|	56
# 125	|	rd_data		|	0
# -------------------------------------------------------
#                  125 : scoreboard actual: READ 151 107 56 0 1 0
# -------------------scoreboard class-------------------
# Time	|	Name		|	Value
# -------------------------------------------------------
# 125	|	wr_enbl		|	0
# 125	|	rd_enbl		|	1
# 125	|	wr_addr		|	151
# 125	|	rd_addr		|	107
# 125	|	wr_data		|	56
# 125	|	rd_data		|	0
# -------------------------------------------------------
#                  125 :read pass
# reset block
#                  133 : generator: READ 187 196 195 0 1 0
#                  135 : driver: READ 187 196 195 0 1 0
# -------------------driver class-------------------
# Time	|	Name		|	Value
# -------------------------------------------------------
# 135	|	wr_enbl		|	0
# 135	|	rd_enbl		|	1
# 135	|	wr_addr		|	187
# 135	|	rd_addr		|	196
# 135	|	wr_data		|	195
# 135	|	rd_data		|	0
# -------------------------------------------------------
# -------------------monitor class-------------------
# Time	|	Name		|	Value
# -------------------------------------------------------
# 135	|	wr_enbl		|	0
# 135	|	rd_enbl		|	1
# 135	|	wr_addr		|	22
# 135	|	rd_addr		|	48
# 135	|	wr_data		|	194
# 135	|	rd_data		|	0
# -------------------------------------------------------
# -------------------predictcor class-------------------
# Time	|	Name		|	Value
# -------------------------------------------------------
# 135	|	wr_enbl		|	0
# 135	|	rd_enbl		|	1
# 135	|	wr_addr		|	22
# 135	|	rd_addr		|	48
# 135	|	wr_data		|	194
# 135	|	rd_data		|	0
# -------------------------------------------------------
#                  135 : scoreboard expected: READ 22 48 194 0 1 0
# -------------------scoreboard class-------------------
# Time	|	Name		|	Value
# -------------------------------------------------------
# 135	|	wr_enbl		|	0
# 135	|	rd_enbl		|	1
# 135	|	wr_addr		|	22
# 135	|	rd_addr		|	48
# 135	|	wr_data		|	194
# 135	|	rd_data		|	0
# -------------------------------------------------------
#                  135 : scoreboard actual: READ 22 48 194 0 1 0
# -------------------scoreboard class-------------------
# Time	|	Name		|	Value
# -------------------------------------------------------
# 135	|	wr_enbl		|	0
# 135	|	rd_enbl		|	1
# 135	|	wr_addr		|	22
# 135	|	rd_addr		|	48
# 135	|	wr_data		|	194
# 135	|	rd_data		|	0
# -------------------------------------------------------
#                  135 :read pass
# reset block
#                  143 : generator: READ 58 71 0 0 1 0
#                  145 : driver: READ 58 71 0 0 1 0
# -------------------driver class-------------------
# Time	|	Name		|	Value
# -------------------------------------------------------
# 145	|	wr_enbl		|	0
# 145	|	rd_enbl		|	1
# 145	|	wr_addr		|	58
# 145	|	rd_addr		|	71
# 145	|	wr_data		|	0
# 145	|	rd_data		|	0
# -------------------------------------------------------
# -------------------monitor class-------------------
# Time	|	Name		|	Value
# -------------------------------------------------------
# 145	|	wr_enbl		|	0
# 145	|	rd_enbl		|	1
# 145	|	wr_addr		|	187
# 145	|	rd_addr		|	196
# 145	|	wr_data		|	195
# 145	|	rd_data		|	0
# -------------------------------------------------------
# -------------------predictcor class-------------------
# Time	|	Name		|	Value
# -------------------------------------------------------
# 145	|	wr_enbl		|	0
# 145	|	rd_enbl		|	1
# 145	|	wr_addr		|	187
# 145	|	rd_addr		|	196
# 145	|	wr_data		|	195
# 145	|	rd_data		|	0
# -------------------------------------------------------
#                  145 : scoreboard expected: READ 187 196 195 0 1 0
# -------------------scoreboard class-------------------
# Time	|	Name		|	Value
# -------------------------------------------------------
# 145	|	wr_enbl		|	0
# 145	|	rd_enbl		|	1
# 145	|	wr_addr		|	187
# 145	|	rd_addr		|	196
# 145	|	wr_data		|	195
# 145	|	rd_data		|	0
# -------------------------------------------------------
#                  145 : scoreboard actual: READ 187 196 195 0 1 0
# -------------------scoreboard class-------------------
# Time	|	Name		|	Value
# -------------------------------------------------------
# 145	|	wr_enbl		|	0
# 145	|	rd_enbl		|	1
# 145	|	wr_addr		|	187
# 145	|	rd_addr		|	196
# 145	|	wr_data		|	195
# 145	|	rd_data		|	0
# -------------------------------------------------------
#                  145 :read pass
# reset block
#                  153 : generator: READ 206 232 9 0 1 0
#                  155 : driver: READ 206 232 9 0 1 0
# -------------------driver class-------------------
# Time	|	Name		|	Value
# -------------------------------------------------------
# 155	|	wr_enbl		|	0
# 155	|	rd_enbl		|	1
# 155	|	wr_addr		|	206
# 155	|	rd_addr		|	232
# 155	|	wr_data		|	9
# 155	|	rd_data		|	0
# -------------------------------------------------------
# -------------------monitor class-------------------
# Time	|	Name		|	Value
# -------------------------------------------------------
# 155	|	wr_enbl		|	0
# 155	|	rd_enbl		|	1
# 155	|	wr_addr		|	58
# 155	|	rd_addr		|	71
# 155	|	wr_data		|	0
# 155	|	rd_data		|	0
# -------------------------------------------------------
# -------------------predictcor class-------------------